18
Lattice="3.75452524 0.00017259 -0.87569647 -0.39236202 8.16106851 -1.68275234 -0.00447783 0.03565236 8.46311399" Properties=species:S:1:pos:R:3:forces:R:3:magmoms:R:1 energy=-118.79070384 stress="-0.0004119613976581626 -2.2269080410238878e-07 -2.3001727475962434e-05 -2.2269080410238878e-07 -8.725633502890271e-05 -8.344722939050392e-06 -2.3001727475962434e-05 -8.344722939050392e-06 -0.00047891091408940376" bandgap=2.5098 e_per_atom_relaxed=-7.550414136666666 mp_id=mp-554500 energy_per_atom=-7.550594657777777 ef_per_atom_relaxed=-7.550414136666666 corrected_total_energy=-135.91070384 ef_per_atom=-1.948517764166667 task_id=mp-565893 calc_id=0 ionic_step=8 pbc="T T T"
Bi       2.31989784       4.95379775       1.45576390       0.00082629       0.00216034       0.00088701       0.00000000
Bi       1.03778755       3.24309571       4.44890128      -0.00082629      -0.00216034      -0.00088701       0.00000000
Bi       0.88202550       7.60217491       3.78205750      -0.00003739      -0.00849069       0.00656065       0.00000000
Bi       2.47565989       0.59471855       2.12260768       0.00003739       0.00849069      -0.00656065       0.00000000
W       -0.25738397       5.73585081      -1.11183288       0.00042941      -0.01254611      -0.00482658       0.00000000
W        3.61506936       2.46104265       7.01649806      -0.00042941       0.01254611       0.00482658       0.00000000
O        2.47406438       7.20273752       2.11875732      -0.00136743      -0.00147766      -0.00614719       0.00000000
O        2.60637444       2.99992901       2.68515296       0.00330072       0.00364148       0.01263922       0.00000000
O        3.26738578       3.98977279       5.51823271       0.00207144      -0.01203237       0.00895437       0.00000000
O        0.75131095       5.19696445       3.21951222      -0.00330072      -0.00364148      -0.01263922       0.00000000
O        0.20949070       1.40989712       0.89816016       0.00422632       0.03881697       0.02196967       0.00000000
O        3.28931842       1.27983534       5.61114629       0.00435028      -0.04625182       0.01650912       0.00000000
O        0.09029961       4.20712067       0.38643247      -0.00207144       0.01203237      -0.00895437       0.00000000
O        0.06836697       6.91705812       0.29351889      -0.00435028       0.04625182      -0.01650912       0.00000000
O        0.88362101       0.99415594       3.78590786       0.00136743       0.00147766       0.00614719       0.00000000
O        3.14819469       6.78699634       5.00650502      -0.00422632      -0.03881697      -0.02196967       0.00000000
O        1.63297660       5.60003039      -1.48817734       0.00765489       0.01522418       0.02069087       0.00000000
O        1.72470879       2.59686307       7.39284252      -0.00765489      -0.01522418      -0.02069087       0.00000000
18
Lattice="6.11189328 -0.36374758 -0.04033437 1.94848071 5.67542472 0.18830403 1.50892743 2.70462895 7.98796593" Properties=species:S:1:pos:R:3:forces:R:3:magmoms:R:1 energy=-103.48141635 stress="-0.003268166300782411 -2.011749490134615e-05 8.497699831122139e-05 -2.011749490134615e-05 -0.0027888503751658292 7.551561321596836e-05 8.497699831122139e-05 7.551561321596836e-05 -0.002801043837326228" bandgap=0.0 e_per_atom_relaxed=-5.909412019444445 mp_id=mp-1247325 energy_per_atom=-5.909412019444445 ef_per_atom_relaxed=-5.909412019444445 corrected_total_energy=-106.36941635000001 ef_per_atom=-0.641108185 task_id=mp-1247325 calc_id=0 ionic_step=2 pbc="T T T"
Ca       6.24319364       3.32851354       1.26221889      -0.01578284       0.00528890      -0.01668403      -0.00000000
Ca       3.32610778       4.68779255       6.87371670       0.01578284      -0.00528890       0.01668403      -0.00000000
Ca       6.10079562       3.38750069       7.87693145       0.00902703       0.00823701      -0.00479528      -0.00000000
Ca       3.46850580       4.62880540       0.25900414      -0.00902703      -0.00823701       0.00479528      -0.00000000
Ca       6.28633038       3.89097566       4.70532190      -0.00082052      -0.01614549       0.00585952      -0.00000000
Ca       3.28297104       4.12533043       3.43061369       0.00082052       0.01614549      -0.00585952      -0.00000000
Ca       4.13027495       7.12487540       5.18208342       0.00542638       0.00303698       0.00121958      -0.00000000
Ca       5.43902647       0.89143069       2.95385217      -0.00542638      -0.00303698      -0.00121958      -0.00000000
Pt       7.19763906       6.55845131       6.18383193       0.01173140      -0.01196328      -0.01435586      -0.00000000
Pt       2.37166236       1.45785478       1.95210366      -0.01173140       0.01196328       0.01435586      -0.00000000
N        8.28985580       5.11951958       4.95685805       0.00690078       0.00529424      -0.00036700       0.00000000
N        1.27944562       2.89678651       3.17907754      -0.00690078      -0.00529424       0.00036700      -0.00000000
N        8.94491612       6.91596526       7.16415715       0.00601430      -0.00141082       0.00201132       0.00000000
N        0.62438530       1.10034083       0.97177844      -0.00601430       0.00141082      -0.00201132       0.00000000
N        5.50641495       5.46194798       6.31722751      -0.00346600      -0.00480284       0.02154681       0.00000000
N        4.06288647       2.55435811       1.81870808       0.00346600       0.00480284      -0.02154681       0.00000000
N        5.34260672       5.37584811       2.06302456       0.01430597       0.00202526       0.01109155       0.00000000
N        4.22669470       2.64045798       6.07291103      -0.01430597      -0.00202526      -0.01109155       0.00000000
