18
Lattice="6.11189328 -0.36374758 -0.04033437 1.94848071 5.67542472 0.18830403 1.50892743 2.70462895 7.98796593" Properties=species:S:1:pos:R:3:forces:R:3:magmoms:R:1 energy=-103.48141635 stress="-0.003268166300782411 -2.011749490134615e-05 8.497699831122139e-05 -2.011749490134615e-05 -0.0027888503751658292 7.551561321596836e-05 8.497699831122139e-05 7.551561321596836e-05 -0.002801043837326228" bandgap=0.0 e_per_atom_relaxed=-5.909412019444445 mp_id=mp-1247325 energy_per_atom=-5.909412019444445 ef_per_atom_relaxed=-5.909412019444445 corrected_total_energy=-106.36941635000001 ef_per_atom=-0.641108185 task_id=mp-1247325 calc_id=0 ionic_step=2 pbc="T T T"
Ca       6.24319364       3.32851354       1.26221889      -0.01578284       0.00528890      -0.01668403      -0.00000000
Ca       3.32610778       4.68779255       6.87371670       0.01578284      -0.00528890       0.01668403      -0.00000000
Ca       6.10079562       3.38750069       7.87693145       0.00902703       0.00823701      -0.00479528      -0.00000000
Ca       3.46850580       4.62880540       0.25900414      -0.00902703      -0.00823701       0.00479528      -0.00000000
Ca       6.28633038       3.89097566       4.70532190      -0.00082052      -0.01614549       0.00585952      -0.00000000
Ca       3.28297104       4.12533043       3.43061369       0.00082052       0.01614549      -0.00585952      -0.00000000
Ca       4.13027495       7.12487540       5.18208342       0.00542638       0.00303698       0.00121958      -0.00000000
Ca       5.43902647       0.89143069       2.95385217      -0.00542638      -0.00303698      -0.00121958      -0.00000000
Pt       7.19763906       6.55845131       6.18383193       0.01173140      -0.01196328      -0.01435586      -0.00000000
Pt       2.37166236       1.45785478       1.95210366      -0.01173140       0.01196328       0.01435586      -0.00000000
N        8.28985580       5.11951958       4.95685805       0.00690078       0.00529424      -0.00036700       0.00000000
N        1.27944562       2.89678651       3.17907754      -0.00690078      -0.00529424       0.00036700      -0.00000000
N        8.94491612       6.91596526       7.16415715       0.00601430      -0.00141082       0.00201132       0.00000000
N        0.62438530       1.10034083       0.97177844      -0.00601430       0.00141082      -0.00201132       0.00000000
N        5.50641495       5.46194798       6.31722751      -0.00346600      -0.00480284       0.02154681       0.00000000
N        4.06288647       2.55435811       1.81870808       0.00346600       0.00480284      -0.02154681       0.00000000
N        5.34260672       5.37584811       2.06302456       0.01430597       0.00202526       0.01109155       0.00000000
N        4.22669470       2.64045798       6.07291103      -0.01430597      -0.00202526      -0.01109155       0.00000000
16
Lattice="8.47300674 0.0 0.0 0.0 4.24579254 0.0 0.0 0.0 4.24579254" Properties=species:S:1:pos:R:3:forces:R:3:magmoms:R:1 energy=-93.99707402 stress="-0.0034899377742811212 -0.0 -0.0 -0.0 0.0006246031099244961 -0.0 -0.0 -0.0 0.0006246031099244961" bandgap=2.8476 e_per_atom_relaxed=-6.21831712625 mp_id=mp-1031142 energy_per_atom=-6.21831712625 ef_per_atom_relaxed=-6.21831712625 corrected_total_energy=-99.49307402 ef_per_atom=-2.8369401247916666 task_id=mp-1031142 calc_id=0 ionic_step=0 pbc="T T T"
Li       0.00000000       0.00000000       0.00000000       0.00000000       0.00000000       0.00000000       0.00000000
Mg       0.00000000       2.12289627       2.12289627       0.00000000       0.00000000       0.00000000       0.00000000
Mg       4.23650337       2.12289627       2.12289627       0.00000000       0.00000000       0.00000000       0.00000000
Mg       2.02197071       0.00000000       2.12289627      -0.00306392       0.00000000      -0.00000000       0.00000000
Mg       6.45103603       0.00000000       2.12289627       0.00306392       0.00000000       0.00000000      -0.00000000
Mg       2.02197071       2.12289627       0.00000000      -0.00306392      -0.00000000       0.00000000       0.00000000
Mg       6.45103603       2.12289627       0.00000000       0.00306392       0.00000000      -0.00000000       0.00000000
Ga       4.23650337       0.00000000       0.00000000       0.00000000       0.00000000       0.00000000       0.00000000
O        2.31396535       0.00000000       0.00000000       0.04965687       0.00000000      -0.00000000      -0.00000000
O        6.15904139       0.00000000       0.00000000      -0.04965687      -0.00000000       0.00000000      -0.00000000
O        2.14756193       2.12289627       2.12289627      -0.02469147      -0.00000000       0.00000000      -0.00000000
O        6.32544481       2.12289627       2.12289627       0.02469147       0.00000000      -0.00000000      -0.00000000
O        0.00000000       0.00000000       2.12289627       0.00000000       0.00000000       0.00000000      -0.00000000
O        4.23650337       0.00000000       2.12289627       0.00000000       0.00000000       0.00000000      -0.00000000
O        0.00000000       2.12289627       0.00000000       0.00000000       0.00000000       0.00000000       0.00000000
O        4.23650337       2.12289627       0.00000000       0.00000000       0.00000000       0.00000000      -0.00000000
