18
Lattice="3.75452524 0.00017259 -0.87569647 -0.39236202 8.16106851 -1.68275234 -0.00447783 0.03565236 8.46311399" Properties=species:S:1:pos:R:3:forces:R:3:magmoms:R:1 energy=-118.79070384 stress="-0.0004119613976581626 -2.2269080410238878e-07 -2.3001727475962434e-05 -2.2269080410238878e-07 -8.725633502890271e-05 -8.344722939050392e-06 -2.3001727475962434e-05 -8.344722939050392e-06 -0.00047891091408940376" bandgap=2.5098 e_per_atom_relaxed=-7.550414136666666 mp_id=mp-554500 energy_per_atom=-7.550594657777777 ef_per_atom_relaxed=-7.550414136666666 corrected_total_energy=-135.91070384 ef_per_atom=-1.948517764166667 task_id=mp-565893 calc_id=0 ionic_step=8 lol=hehe pbc="T T T"
Bi       2.31989784       4.95379775       1.45576390       0.00082629       0.00216034       0.00088701       0.00000000
Bi       1.03778755       3.24309571       4.44890128      -0.00082629      -0.00216034      -0.00088701       0.00000000
Bi       0.88202550       7.60217491       3.78205750      -0.00003739      -0.00849069       0.00656065       0.00000000
Bi       2.47565989       0.59471855       2.12260768       0.00003739       0.00849069      -0.00656065       0.00000000
W       -0.25738397       5.73585081      -1.11183288       0.00042941      -0.01254611      -0.00482658       0.00000000
W        3.61506936       2.46104265       7.01649806      -0.00042941       0.01254611       0.00482658       0.00000000
O        2.47406438       7.20273752       2.11875732      -0.00136743      -0.00147766      -0.00614719       0.00000000
O        2.60637444       2.99992901       2.68515296       0.00330072       0.00364148       0.01263922       0.00000000
O        3.26738578       3.98977279       5.51823271       0.00207144      -0.01203237       0.00895437       0.00000000
O        0.75131095       5.19696445       3.21951222      -0.00330072      -0.00364148      -0.01263922       0.00000000
O        0.20949070       1.40989712       0.89816016       0.00422632       0.03881697       0.02196967       0.00000000
O        3.28931842       1.27983534       5.61114629       0.00435028      -0.04625182       0.01650912       0.00000000
O        0.09029961       4.20712067       0.38643247      -0.00207144       0.01203237      -0.00895437       0.00000000
O        0.06836697       6.91705812       0.29351889      -0.00435028       0.04625182      -0.01650912       0.00000000
O        0.88362101       0.99415594       3.78590786       0.00136743       0.00147766       0.00614719       0.00000000
O        3.14819469       6.78699634       5.00650502      -0.00422632      -0.03881697      -0.02196967       0.00000000
O        1.63297660       5.60003039      -1.48817734       0.00765489       0.01522418       0.02069087       0.00000000
O        1.72470879       2.59686307       7.39284252      -0.00765489      -0.01522418      -0.02069087       0.00000000
18
Lattice="6.11189328 -0.36374758 -0.04033437 1.94848071 5.67542472 0.18830403 1.50892743 2.70462895 7.98796593" Properties=species:S:1:pos:R:3:forces:R:3:magmoms:R:1 energy=-103.48141635 stress="-0.003268166300782411 -2.011749490134615e-05 8.497699831122139e-05 -2.011749490134615e-05 -0.0027888503751658292 7.551561321596836e-05 8.497699831122139e-05 7.551561321596836e-05 -0.002801043837326228" bandgap=0.0 e_per_atom_relaxed=-5.909412019444445 mp_id=mp-1247325 energy_per_atom=-5.909412019444445 ef_per_atom_relaxed=-5.909412019444445 corrected_total_energy=-106.36941635000001 ef_per_atom=-0.641108185 task_id=mp-1247325 calc_id=0 ionic_step=2 pbc="T T T"
Ca       6.24319364       3.32851354       1.26221889      -0.01578284       0.00528890      -0.01668403      -0.00000000
Ca       3.32610778       4.68779255       6.87371670       0.01578284      -0.00528890       0.01668403      -0.00000000
Ca       6.10079562       3.38750069       7.87693145       0.00902703       0.00823701      -0.00479528      -0.00000000
Ca       3.46850580       4.62880540       0.25900414      -0.00902703      -0.00823701       0.00479528      -0.00000000
Ca       6.28633038       3.89097566       4.70532190      -0.00082052      -0.01614549       0.00585952      -0.00000000
Ca       3.28297104       4.12533043       3.43061369       0.00082052       0.01614549      -0.00585952      -0.00000000
Ca       4.13027495       7.12487540       5.18208342       0.00542638       0.00303698       0.00121958      -0.00000000
Ca       5.43902647       0.89143069       2.95385217      -0.00542638      -0.00303698      -0.00121958      -0.00000000
Pt       7.19763906       6.55845131       6.18383193       0.01173140      -0.01196328      -0.01435586      -0.00000000
Pt       2.37166236       1.45785478       1.95210366      -0.01173140       0.01196328       0.01435586      -0.00000000
N        8.28985580       5.11951958       4.95685805       0.00690078       0.00529424      -0.00036700       0.00000000
N        1.27944562       2.89678651       3.17907754      -0.00690078      -0.00529424       0.00036700      -0.00000000
N        8.94491612       6.91596526       7.16415715       0.00601430      -0.00141082       0.00201132       0.00000000
N        0.62438530       1.10034083       0.97177844      -0.00601430       0.00141082      -0.00201132       0.00000000
N        5.50641495       5.46194798       6.31722751      -0.00346600      -0.00480284       0.02154681       0.00000000
N        4.06288647       2.55435811       1.81870808       0.00346600       0.00480284      -0.02154681       0.00000000
N        5.34260672       5.37584811       2.06302456       0.01430597       0.00202526       0.01109155       0.00000000
N        4.22669470       2.64045798       6.07291103      -0.01430597      -0.00202526      -0.01109155       0.00000000
16
Lattice="8.47300674 0.0 0.0 0.0 4.24579254 0.0 0.0 0.0 4.24579254" Properties=species:S:1:pos:R:3:forces:R:3:magmoms:R:1 energy=-93.99707402 stress="-0.0034899377742811212 -0.0 -0.0 -0.0 0.0006246031099244961 -0.0 -0.0 -0.0 0.0006246031099244961" bandgap=2.8476 e_per_atom_relaxed=-6.21831712625 mp_id=mp-1031142 energy_per_atom=-6.21831712625 ef_per_atom_relaxed=-6.21831712625 corrected_total_energy=-99.49307402 ef_per_atom=-2.8369401247916666 task_id=mp-1031142 calc_id=0 ionic_step=0 pbc="T T T"
Li       0.00000000       0.00000000       0.00000000       0.00000000       0.00000000       0.00000000       0.00000000
Mg       0.00000000       2.12289627       2.12289627       0.00000000       0.00000000       0.00000000       0.00000000
Mg       4.23650337       2.12289627       2.12289627       0.00000000       0.00000000       0.00000000       0.00000000
Mg       2.02197071       0.00000000       2.12289627      -0.00306392       0.00000000      -0.00000000       0.00000000
Mg       6.45103603       0.00000000       2.12289627       0.00306392       0.00000000       0.00000000      -0.00000000
Mg       2.02197071       2.12289627       0.00000000      -0.00306392      -0.00000000       0.00000000       0.00000000
Mg       6.45103603       2.12289627       0.00000000       0.00306392       0.00000000      -0.00000000       0.00000000
Ga       4.23650337       0.00000000       0.00000000       0.00000000       0.00000000       0.00000000       0.00000000
O        2.31396535       0.00000000       0.00000000       0.04965687       0.00000000      -0.00000000      -0.00000000
O        6.15904139       0.00000000       0.00000000      -0.04965687      -0.00000000       0.00000000      -0.00000000
O        2.14756193       2.12289627       2.12289627      -0.02469147      -0.00000000       0.00000000      -0.00000000
O        6.32544481       2.12289627       2.12289627       0.02469147       0.00000000      -0.00000000      -0.00000000
O        0.00000000       0.00000000       2.12289627       0.00000000       0.00000000       0.00000000      -0.00000000
O        4.23650337       0.00000000       2.12289627       0.00000000       0.00000000       0.00000000      -0.00000000
O        0.00000000       2.12289627       0.00000000       0.00000000       0.00000000       0.00000000       0.00000000
O        4.23650337       2.12289627       0.00000000       0.00000000       0.00000000       0.00000000      -0.00000000
20
Lattice="-2.88422865 -4.99562956 0.0 -2.88422865 4.99562956 -0.0 -0.0 -0.0 -11.84729818" Properties=species:S:1:pos:R:3:forces:R:3:magmoms:R:1 energy=-154.52400753 stress="-0.00263071343401293 -0.0 -0.0 -0.0 -0.0026307123729563788 0.0 -0.0 0.0 -0.0031734529601744146" bandgap=0.0 e_per_atom_relaxed=-8.023012054 mp_id=mp-1208409 energy_per_atom=-8.0280003765 ef_per_atom_relaxed=-8.023012054 corrected_total_energy=-160.56000753 ef_per_atom=-1.2779654928750004 task_id=mp-1208409 calc_id=0 ionic_step=6 pbc="T T T"
Ta       0.00000000       0.00000000       0.00000000       0.00000000       0.00000000      -0.00000000       0.03700000
Ta       0.00000000       0.00000000      -5.92364909       0.00000000       0.00000000      -0.00000000       0.03300000
Ta      -2.88422865      -1.66521318      -5.89970748       0.00000000       0.00000000       0.08127135       0.03400000
Ta      -2.88422865       1.66521318     -11.82335657       0.00000000       0.00000000       0.08127135       0.03900000
Ta      -2.88422865       1.66521318      -5.94759070      -0.00000000       0.00000000      -0.08127135       0.03500000
Ta      -2.88422865      -1.66521318      -0.02394161       0.00000000       0.00000000      -0.08127135       0.03800000
Co      -2.88422865      -1.66521318      -8.88547364       0.00000000       0.00000000      -0.00000000       1.53400000
Co      -2.88422865       1.66521318      -2.96182454      -0.00000000       0.00000000      -0.00000000       1.52800000
S       -3.84994680      -0.00576226     -10.28373288       0.00650984       0.02243834       0.04541940       0.03300000
S       -3.83849364      -3.33126993     -10.28373288      -0.02268709      -0.00558148       0.04541940       0.03900000
S       -1.91851050       0.00576226      -4.36008379      -0.00650984      -0.02243834       0.04541940       0.03300000
S       -0.96424552       1.65859737      -1.56356530       0.01617725       0.01685686      -0.04541940       0.03900000
S       -0.96424552      -1.65859737     -10.28373288       0.01617725      -0.01685686       0.04541940       0.04200000
S       -1.92996366       3.33126993      -4.36008379       0.02268709       0.00558148       0.04541940       0.04000000
S       -3.84994680       0.00576226      -1.56356530       0.00650984      -0.02243834      -0.04541940       0.03900000
S       -4.80421178      -1.65859737      -7.48721439      -0.01617725      -0.01685686      -0.04541940       0.04100000
S       -4.80421178       1.65859737      -4.36008379      -0.01617725       0.01685686       0.04541940       0.04000000
S       -1.91851050      -0.00576226      -7.48721439      -0.00650984       0.02243834      -0.04541940       0.03900000
S       -3.83849364       3.33126993      -1.56356530      -0.02268709       0.00558148      -0.04541940       0.03400000
S       -1.92996366      -3.33126993      -7.48721439       0.02268709      -0.00558148      -0.04541940       0.03400000
56
Lattice="4.823969 0.0 0.0 0.0 9.607449 0.0 0.0 0.0 13.348044" Properties=species:S:1:pos:R:3:forces:R:3:magmoms:R:1 energy=-403.90959303 stress="-0.001139283675908698 7.075998896013849e-08 -7.743902787574616e-07 7.075998896013849e-08 -0.000753251866449904 3.403370096161623e-07 -7.743902787574616e-07 3.403370096161623e-07 -0.00042666507620031804" bandgap=5.469099999999999 e_per_atom_relaxed=-7.605242732678571 mp_id=mp-1247561 energy_per_atom=-7.605242732678571 ef_per_atom_relaxed=-7.605242732678571 corrected_total_energy=-425.89359303 ef_per_atom=-2.8614104217261906 task_id=mp-1876321 calc_id=0 ionic_step=0 pbc="T T T"
Na       4.58064800       4.56096348       9.97280420       0.00497673       0.00368164       0.01467284       0.00000000
Na       4.58064800       0.24276102       3.29878220       0.00497610      -0.00368504       0.01469156       0.00000000
Na       2.13941578       2.73782513       6.66738802      -0.04384921      -0.02730330      -0.01552750       0.00000000
Na       0.24332100       9.36468798       9.97280420      -0.00497987       0.00368723       0.01467540       0.00000000
Na       2.68455322       7.54154963       6.66738802       0.04384879      -0.02730433      -0.01553399       0.00000000
Na       0.24332100       5.04648552       3.29878220      -0.00497806      -0.00368189       0.01469895       0.00000000
Na       2.13941578       2.06589937      13.34141002      -0.04384861       0.02730589      -0.01550633       0.00000000
Na       2.68455322       6.86962387      13.34141002       0.04385004       0.02730841      -0.01551538       0.00000000
Si       2.69885146       0.29677410       8.32664333       0.01160396      -0.04305918      -0.06209301       0.00000000
Si       2.69885146       4.50695040       1.65262133       0.01152409       0.04303757      -0.06196000       0.00000000
Si       4.60549144       2.63740808       4.97611076       0.02142411       0.00638681       0.07272970       0.00000000
Si       0.21847756       7.44113258       4.97611076      -0.02141087       0.00639129       0.07272987       0.00000000
Si       4.60549144       2.16631642      11.65013276       0.02142459      -0.00637513       0.07274434       0.00000000
Si       2.12511754       5.10049860       8.32664333      -0.01159615      -0.04306565      -0.06208610       0.00000000
Si       0.21847756       6.97004092      11.65013276      -0.02141523      -0.00637963       0.07274980       0.00000000
Si       2.12511754       9.31067490       1.65262133      -0.01151475       0.04305235      -0.06196113       0.00000000
B        2.63875446       6.94259244       3.32485093      -0.02084096       0.01316616      -0.02224933       0.00000000
B        4.55037277       5.05796642       6.64330815       0.01046875      -0.00730629       0.02135558       0.00000000
B        4.55037277       9.35320708      13.31733015       0.01049735       0.00732222       0.02149404       0.00000000
B        2.18521454       2.66485656       9.99887293       0.02084921      -0.01319307      -0.02224611       0.00000000
B        0.27359623       4.54948258      13.31733015      -0.01049814       0.00731668       0.02149625       0.00000000
B        2.18521454       2.13886794       3.32485093       0.02084403       0.01317213      -0.02224592       0.00000000
B        0.27359623       0.25424192       6.64330815      -0.01046818      -0.00729895       0.02136519       0.00000000
B        2.63875446       7.46858106       9.99887293      -0.02084583      -0.01317661      -0.02224951       0.00000000
O        0.75952910       2.37331852       3.69328364       0.04210903       0.02165553      -0.03681797      -0.00000000
O        2.30596813       7.77262800       2.14864799      -0.04610646      -0.07343104      -0.00502895      -0.00000000
O        0.75952910       2.43040598      10.36730564       0.04210385      -0.02165139      -0.03682832      -0.00000000
O        3.14083315       9.59494971       0.39454148      -0.00430783       0.00177240       0.08264156      -0.00000000
O        2.35438631       0.69795235       2.93778435       0.04790158       0.04263136       0.03682707      -0.00000000
O        3.06045136       2.41305493       4.49454003      -0.07832895      -0.00337642      -0.02838743      -0.00000000
O        4.77844520       8.97857421       5.48653996       0.02484624      -0.01661224      -0.04375714      -0.00000000
O        4.06443990       7.23413048      10.36730564      -0.04209114      -0.02165968      -0.03685001      -0.00000000
O        4.70924537       6.47442145       6.24971438       0.06337164       0.02815114      -0.07177208      -0.00000000
O        2.35438631       4.10577215       9.61180635       0.04785915      -0.04262734       0.03679268      -0.00000000
O        4.70924537       7.93675205      12.92373638       0.06338997      -0.02811339      -0.07178314      -0.00000000
O        1.76351764       7.19439407      11.16856203       0.07832310       0.00337693      -0.02839405      -0.00000000
O        4.20814594       9.56953801       7.79110645      -0.03194341      -0.07900654       0.05735623      -0.00000000
O        2.46958269       8.90949665       9.61180635      -0.04787573      -0.04262061       0.03684061      -0.00000000
O        3.06045136       2.39066957      11.16856203      -0.07834731       0.00338035      -0.02836635      -0.00000000
O        2.46958269       5.50167685       2.93778435      -0.04790775       0.04262390       0.03685505      -0.00000000
O        2.51800087       1.83482100       8.82266999       0.04611305       0.07342766      -0.00500702      -0.00000000
O        1.68313585       4.79122521       0.39454148       0.00431900       0.00177781       0.08262483      -0.00000000
O        4.06443990       7.17704302       3.69328364      -0.04209124       0.02165593      -0.03683887      -0.00000000
O        2.30596813       6.63854550       8.82266999      -0.04610607       0.07340361      -0.00498446      -0.00000000
O        1.68313585       0.01249929       7.06856348       0.00433167      -0.00177165       0.08267127      -0.00000000
O        0.61582306       4.76581351       7.79110645       0.03194062      -0.07901583       0.05737390      -0.00000000
O        0.61582306       0.03791099       1.11709780       0.03171944       0.07899331       0.05704463      -0.00000000
O        2.51800087       2.96890350       2.14864799       0.04610235      -0.07340990      -0.00500829      -0.00000000
O        3.14083315       4.81622379       7.06856348      -0.00432497      -0.00176876       0.08268480      -0.00000000
O        4.20814594       4.84163549       1.11709780      -0.03173487       0.07897315       0.05702419      -0.00000000
O        0.04552380       0.62887479      12.16056196      -0.02482800       0.01660391      -0.04370379      -0.00000000
O        0.11472363       3.13302755      12.92373638      -0.06338969      -0.02810577      -0.07179371      -0.00000000
O        1.76351764       7.21677943       4.49454003       0.07830601      -0.00338186      -0.02840893      -0.00000000
O        0.11472363       1.67069695       6.24971438      -0.06337091       0.02813933      -0.07179398      -0.00000000
O        4.77844520       5.43259929      12.16056196       0.02483582       0.01661447      -0.04369568      -0.00000000
O        0.04552380       4.17484971       5.48653996      -0.02486007      -0.01662768      -0.04374584      -0.00000000
30
Lattice="-4.794383 0.0 0.0 -0.065351 5.738718 0.0 -0.215419 2.61829 -13.574335" Properties=species:S:1:pos:R:3:forces:R:3:magmoms:R:1 energy=-196.08817797 stress="-0.00015525978644963134 -0.0005566954719103588 0.0002399019277962491 -0.0005566954719103588 -0.0004924023230385662 -0.0015288747246710542 0.0002399019277962491 -0.0015288747246710542 -0.0030771429479093796" bandgap=0.1645000000000001 e_per_atom_relaxed=-7.4406462053333335 mp_id=mp-780862 energy_per_atom=-7.4377725990000005 ef_per_atom_relaxed=-7.4406462053333335 corrected_total_energy=-223.13317797000002 ef_per_atom=-2.603483311176725 task_id=mp-892187 calc_id=0 ionic_step=0 pbc="T T T"
Mn      -2.65936255       5.47888695     -13.56481939      -0.00242810       0.00559120      -0.00019429       4.28600000
Mn      -2.46194469       5.04424901      -5.45351623       0.02927242       0.00889630      -0.02573049       4.32100000
Mn      -2.74395001       3.20445191      -8.01983929      -0.03915867      -0.07056314       0.01843539       4.40400000
Mn      -2.28783507       1.12847286      -2.90801621       0.05195348       0.01750427       0.00666402       4.60000000
Mn      -2.72500456       7.27949650     -10.73216789      -0.05877771      -0.01730450      -0.01252477       4.55800000
Mn      -4.70948365       3.93792316      -2.52340100       0.04950216      -0.02105836      -0.01043927       4.56900000
Mn      -4.88386686       2.19706406      -5.43491940       0.01048679       0.01750628       0.00389467       4.19600000
Mn      -0.38444525       4.41164344     -11.02074467      -0.07184772       0.04306150      -0.01351073       4.57800000
Mn      -4.90715326       6.19690178      -8.19151390       0.00208417      -0.01819963       0.01400392       4.21700000
Mn      -4.79402590       0.00801893      -0.00051582      -0.00751750      -0.00680267      -0.00054039       4.13100000
O       -3.88948374       4.15002630      -0.66875319       0.06463397      -0.02896838      -0.00070373      -0.16700000
O       -3.47070349       3.44128706      -6.19011395      -0.00920109      -0.01594977       0.00554954      -0.17000000
O       -3.60295561       7.33031709      -8.91654628      -0.00172414       0.04748196       0.02422463      -0.15900000
O       -1.44921074       0.94953083      -4.76220250       0.03784000      -0.00090368       0.00561949      -0.13700000
O       -1.20619295       4.19996967     -12.88118873      -0.05869217       0.02844427       0.00286533      -0.16000000
F       -4.08236554       2.71381876     -11.72671869       0.03145533      -0.03821294       0.03395766       0.04200000
F       -3.96399010       2.24584171      -3.55708662       0.06246875      -0.04521413       0.04390431       0.04500000
F       -4.08369210       4.54041333      -9.07448367       0.00598970      -0.04116695       0.03369167       0.03800000
F       -3.97739190       6.28014050      -6.30436913       0.05715271      -0.04437288      -0.00157196       0.03300000
F       -3.38842626       1.23238721      -0.94568320      -0.01086603       0.01730338      -0.01138220       0.03100000
F       -3.39813021       5.13954162      -3.59818970      -0.01520511      -0.04034363       0.03391580       0.04300000
F       -3.52263190       5.53801473     -11.67626289      -0.02155807      -0.04781751       0.03759596       0.04100000
F       -1.56769801       2.83452554      -1.87586450       0.02317055       0.04526219      -0.03776853       0.04000000
F       -1.69627892       7.13131648     -12.62671067       0.01128494      -0.02273829      -0.00712978       0.03100000
F       -1.71245862       3.24344860      -9.88336472      -0.00791861       0.04063178      -0.01015727       0.03300000
F       -1.56120215       4.96086740      -7.40082246       0.04203779       0.04077292      -0.01298012       0.01300000
F       -0.99101891       2.07861856      -7.32530844      -0.07986280       0.06439172      -0.03068645       0.03200000
F       -1.02107118       3.82139561      -4.49656634      -0.00992303       0.00474108      -0.02384490       0.02800000
F       -1.00494781       5.64897706      -1.82960317      -0.04764933       0.05623132      -0.04726533       0.04400000
F       -1.13927677       6.11822319     -10.02571877      -0.03700269       0.02179628      -0.01789218       0.05000000
